# vtk DataFile Version 3.0
mse_testdata-iw3d-3D.out
ASCII
DATASET RECTILINEAR_GRID
DIMENSIONS  10 10 1
X_COORDINATES  10 float
0.0 0.05 0.1 0.15000000000000002 0.2 0.25 0.3 0.35 0.39999999999999997 0.44999999999999996 
Y_COORDINATES  10 float
0.0 0.05 0.1 0.15000000000000002 0.2 0.25 0.3 0.35 0.39999999999999997 0.44999999999999996 
Z_COORDINATES  01 float
0.0 
POINT_DATA 100
SCALARS TEMP float 1
LOOKUP_TABLE default
2.769940628631927E-4 4.902356013337272E-5 8.034083825781228E-7 1.2359185310429241E-5 1.2578541368895432E-5 -0.0 5.025961335585621E-5 3.062031407629843E-4 9.509373534442568E-4 0.0021689989178216833 2.2752932807249638E-4 3.8780272348802125E-5 -0.0 1.0700467171953021E-5 1.117544838041239E-5 3.6651777087468994E-7 4.473014571145377E-5 2.73275037892631E-4 8.569948365191918E-4 0.001975478159122527 1.8290183130173108E-4 3.124939293137881E-5 -0.0 8.771463798040217E-6 9.294489364183978E-6 3.5704916901251077E-7 3.832340224271989E-5 2.37466187788265E-4 7.561456740998346E-4 0.0017690872412490348 1.4270533193616909E-4 2.5392698454569846E-5 2.198819899847732E-7 6.569090444830422E-6 7.145722374503483E-6 1.2620156770209632E-7 3.145551250776861E-5 2.0056256284666798E-4 6.533074596152636E-4 0.0015598737757879315 1.0801065443817985E-4 2.1415208176361617E-5 1.0411371362120633E-6 4.70710054301716E-6 5.232831892430322E-6 1.4820655462404832E-8 2.5057871317583528E-5 1.6579726721702783E-4 5.564211298941589E-4 0.0013630137995945283 7.686766690424734E-5 1.7562818518209902E-5 1.7247878975539566E-6 3.198938626530447E-6 3.674471036316203E-6 -0.0 1.969138739091592E-5 1.3616171180056764E-4 4.7355825957302313E-4 0.0011944507476134363 4.576454721614702E-5 1.1206557985796786E-5 1.1093190914531343E-6 1.8906969164493016E-6 2.5289633228718167E-6 3.465887860871267E-10 1.5781273823839515E-5 1.143631135697914E-4 4.122825605655908E-4 0.001069316835877027 1.5743565112545834E-5 3.0215273179116756E-6 -0.0 1.5135656186450916E-6 2.1057709763483804E-6 -0.0 1.3912289349262606E-5 1.0337720627764162E-4 3.802861466060316E-4 0.0010023063426347234 -1.0913588257010507E-18 2.1292832998455114E-6 4.0613215669043644E-6 4.878396359801422E-6 3.188057890259E-6 5.26656426171219E-22 1.5015788356302864E-5 1.070889889091189E-4 3.8640967115167324E-4 0.0010087847602872 2.8809828978967426E-5 2.944270226046703E-5 2.571812432797745E-5 1.7688467746319268E-5 7.214476467278825E-6 -7.805013924068897E-19 2.0450520092445574E-5 1.305854691474425E-4 4.4107908650395855E-4 0.0011051764532877004 