# vtk DataFile Version 3.0
testdata-iw3d-3D.out
ASCII
DATASET RECTILINEAR_GRID
DIMENSIONS  10 10 1
X_COORDINATES  10 float
0.0 0.05 0.1 0.15000000000000002 0.2 0.25 0.3 0.35 0.39999999999999997 0.44999999999999996 
Y_COORDINATES  10 float
0.0 0.05 0.1 0.15000000000000002 0.2 0.25 0.3 0.35 0.39999999999999997 0.44999999999999996 
Z_COORDINATES  01 float
0.0 
POINT_DATA 100
SCALARS TEMP float 1
LOOKUP_TABLE default
0.6334545086857317 0.6405537898072355 0.6402088351696934 0.6320804309636491 0.6165944238356523 0.5949055284903 0.5687783574034995 0.5404013119624758 0.5121579023626457 0.48638508523622415 0.629699239048582 0.6473911609291753 0.6571611788389199 0.6582023224826498 0.6505454224372379 0.6350511033420341 0.6133085812725398 0.5874554752877644 0.5599432763653786 0.533279548659995 0.6269096895627786 0.6536905812362636 0.6720057966901514 0.6806480770934411 0.6793219335502797 0.6686588374105042 0.6501291190003574 0.6258638224585944 0.5984116056102076 0.570463473273588 0.620219293843159 0.6537666444159533 0.6783097871277641 0.6923416326129108 0.6953370295759025 0.6877841492102652 0.6711034070488968 0.6474668065148264 0.6195436546730148 0.5902073366895875 0.6058392533830212 0.6432501103772796 0.6711915796880134 0.6879802828362332 0.6929762675466762 0.6866222795662174 0.6703628763386689 0.6464565661890401 0.6177081920886963 0.5871582518063752 0.5819429946300436 0.6200577579529656 0.6483641717391135 0.6651360902988828 0.6697395369247487 0.6626711463208254 0.6454706610164961 0.6205216123196178 0.5907690142495359 0.5593927687934945 0.5492405596422176 0.5850104397210028 0.6107874152470005 0.6249314286688669 0.6269278814559469 0.6174170850928963 0.5980941484504594 0.571494930944721 0.5406987211436896 0.5089882224814506 0.5111152782017302 0.5419629752546077 0.5627861035427689 0.5721406444266024 0.569724857142715 0.5563930406058681 0.5340383492630438 0.505362176737112 0.4735626599784095 0.4419845148910424 0.4732733688276721 0.49739592470933575 0.5115843069788539 0.5146696984840033 0.5066266394172598 0.48856659904444494 0.46260132220686134 0.43159551553685227 0.3988431970509003 0.36771117123865604 0.44294852248284033 0.45951919226158017 0.46631378024983755 0.46247913634966975 0.4482930745228832 0.4251359087390201 0.39533428592494424 0.36189885406169986 0.32819155039273706 0.29756673942708733 