# vtk DataFile Version 3.0
testdata-iw3d-3D.out
ASCII
DATASET RECTILINEAR_GRID
DIMENSIONS  100 100 1
X_COORDINATES  100 float
0.0 0.05 0.1 0.15000000000000002 0.2 0.25 0.3 0.35 0.39999999999999997 0.44999999999999996 0.49999999999999994 0.5499999999999999 0.6 0.65 0.7000000000000001 0.7500000000000001 0.8000000000000002 0.8500000000000002 0.9000000000000002 0.9500000000000003 1.0000000000000002 1.0500000000000003 1.1000000000000003 1.1500000000000004 1.2000000000000004 1.2500000000000004 1.3000000000000005 1.3500000000000005 1.4000000000000006 1.4500000000000006 1.5000000000000007 1.5500000000000007 1.6000000000000008 1.6500000000000008 1.7000000000000008 1.7500000000000009 1.800000000000001 1.850000000000001 1.900000000000001 1.950000000000001 2.000000000000001 2.0500000000000007 2.1000000000000005 2.1500000000000004 2.2 2.25 2.3 2.3499999999999996 2.3999999999999995 2.4499999999999993 2.499999999999999 2.549999999999999 2.5999999999999988 2.6499999999999986 2.6999999999999984 2.7499999999999982 2.799999999999998 2.849999999999998 2.8999999999999977 2.9499999999999975 2.9999999999999973 3.049999999999997 3.099999999999997 3.149999999999997 3.1999999999999966 3.2499999999999964 3.2999999999999963 3.349999999999996 3.399999999999996 3.4499999999999957 3.4999999999999956 3.5499999999999954 3.599999999999995 3.649999999999995 3.699999999999995 3.7499999999999947 3.7999999999999945 3.8499999999999943 3.899999999999994 3.949999999999994 3.999999999999994 4.049999999999994 4.099999999999993 4.149999999999993 4.199999999999993 4.249999999999993 4.299999999999993 4.3499999999999925 4.399999999999992 4.449999999999992 4.499999999999992 4.549999999999992 4.599999999999992 4.6499999999999915 4.699999999999991 4.749999999999991 4.799999999999991 4.849999999999991 4.899999999999991 4.94999999999999 
Y_COORDINATES  100 float
0.0 0.05 0.1 0.15000000000000002 0.2 0.25 0.3 0.35 0.39999999999999997 0.44999999999999996 0.49999999999999994 0.5499999999999999 0.6 0.65 0.7000000000000001 0.7500000000000001 0.8000000000000002 0.8500000000000002 0.9000000000000002 0.9500000000000003 1.0000000000000002 1.0500000000000003 1.1000000000000003 1.1500000000000004 1.2000000000000004 1.2500000000000004 1.3000000000000005 1.3500000000000005 1.4000000000000006 1.4500000000000006 1.5000000000000007 1.5500000000000007 1.6000000000000008 1.6500000000000008 1.7000000000000008 1.7500000000000009 1.800000000000001 1.850000000000001 1.900000000000001 1.950000000000001 2.000000000000001 2.0500000000000007 2.1000000000000005 2.1500000000000004 2.2 2.25 2.3 2.3499999999999996 2.3999999999999995 2.4499999999999993 2.499999999999999 2.549999999999999 2.5999999999999988 2.6499999999999986 2.6999999999999984 2.7499999999999982 2.799999999999998 2.849999999999998 2.8999999999999977 2.9499999999999975 2.9999999999999973 3.049999999999997 3.099999999999997 3.149999999999997 3.1999999999999966 3.2499999999999964 3.2999999999999963 3.349999999999996 3.399999999999996 3.4499999999999957 3.4999999999999956 3.5499999999999954 3.599999999999995 3.649999999999995 3.699999999999995 3.7499999999999947 3.7999999999999945 3.8499999999999943 3.899999999999994 3.949999999999994 3.999999999999994 4.049999999999994 4.099999999999993 4.149999999999993 4.199999999999993 4.249999999999993 4.299999999999993 4.3499999999999925 4.399999999999992 4.449999999999992 4.499999999999992 4.549999999999992 4.599999999999992 4.6499999999999915 4.699999999999991 4.749999999999991 4.799999999999991 4.849999999999991 4.899999999999991 4.94999999999999 
Z_COORDINATES  01 float
0.0 
POINT_DATA 10000
SCALARS TEMP float 1
LOOKUP_TABLE default
1.3427953886515824 -1.245610718775033 0.08834164740796074 0.2254999811219543 0.7483625803720813 -0.7837788142752096 -0.5471758008101331 0.7389272145747312 0.7625416321921551 0.7259385597960999 -0.13252491010093687 -2.7698790265488413 -1.0568958661962775 -2.198659505472527 -3.070500375049806 -3.8276897904522285 -0.08145040052385166 13.49699865093946 12.148046252841826 13.935627167320554 13.376143001709409 -3.0650547518764673 0.6422792094573864 0.7800444912413185 -1.5531133892218358 -4.016064876035891 -2.5328869013158304 45.16418474277118 47.990444955998036 50.66036185093175 52.874896477726345 55.110588677862005 57.10390657279523 -9.656523663255456 -9.928330580792554 -10.158738873642212 -10.744850623553646 71.91542286160184 -5.16879294870084 0.7730567168381484 0.09967462936087923 -0.4740769481612723 0.7085230917691026 0.0 0.0 0.0 0.0 0.0 0.0 0.0 0.0 0.0 0.0 0.0 0.0 0.0 0.0 0.0 0.0 0.0 0.0 0.0 0.0 0.0 0.0 0.0 0.0 0.0 0.0 0.0 0.0 0.0 0.0 0.0 0.0 0.0 0.0 0.0 0.0 0.0 0.0 0.0 0.0 0.0 0.0 0.0 0.0 0.0 0.0 0.0 0.0 0.0 0.0 0.0 0.0 0.0 0.0 0.0 0.0 0.0 -66.79082770906243 -19.21812837444847 -0.01044494819736545 9.308946917953744 15.268518381045192 16.331123612418583 9.65172072840931 7.351817765360792 2.4808489644534943 -3.0140302790747673 -8.02871628178463 -12.901910973959712 -30.793462985927935 -54.054852899344944 -67.38821082419358 -82.58515762656597 -283.21222956555016 -226.11091903315247 -249.82240207089848 -5.167915945219175 -4.1041014052404465 -116.27723716423164 -96.32926396411725 -0.35368216615727216 -20.543883360010003 -0.5406272173936747 -4.010599702519725 -1.2934952066898424 33.03458091255875 48.23671927685342 51.015774615266416 54.17848412860165 56.45991446957125 58.46114890235747 -9.600885568478663 -9.85812121174978 -10.072861726760202 70.8639422931233 72.77177082786169 -5.230595792837255 0.7732949208751485 -0.4681170532341383 0.5787743867129844 0.0 0.0 0.0 0.0 0.0 0.0 0.0 0.0 0.0 0.0 0.0 0.0 0.0 0.0 0.0 0.0 0.0 0.0 0.0 0.0 0.0 0.0 0.0 0.0 0.0 0.0 0.0 0.0 0.0 0.0 0.0 0.0 0.0 0.0 0.0 0.0 0.0 0.0 0.0 0.0 0.0 0.0 0.0 0.0 0.0 0.0 0.0 0.0 0.0 0.0 0.0 0.0 0.0 0.0 0.0 0.0 0.0 -68.53207216330267 -11.898703037921493 5.181160050549402 14.758481048764919 20.799753927214695 21.8605668652779 13.892389035517116 11.857421391022108 6.968826890057139 1.6755729336085716 -2.719520011139097 -7.179395944593421 -19.879729690199703 -24.00900858390417 -30.70903571497677 -138.6142622856882 -221.13459639887915 -166.69868715974675 -187.71393217150427 -3.796677073817535 9.868549942746295 -72.01127403695492 -74.6097630974546 -0.5173617359942482 -23.4986672386889 -0.3945492431480824 -3.549484179827 -1.0961676589659328 -1.743289808098082 -3.1076622972109105 49.71630155011961 52.568970287323395 55.120169420501654 57.34431258104154 59.27875224300556 -10.066062509043988 -9.47261400550884 -10.821040174912959 71.95463136748813 -5.179001213211411 0.7731184761534067 0.09808798782673289 0.6395428017562235 0.0 0.0 0.0 0.0 0.0 0.0 0.0 0.0 0.0 0.0 0.0 0.0 0.0 0.0 0.0 0.0 0.0 0.0 0.0 0.0 0.0 0.0 0.0 0.0 0.0 0.0 0.0 0.0 0.0 0.0 0.0 0.0 0.0 0.0 0.0 0.0 0.0 0.0 0.0 0.0 0.0 0.0 0.0 0.0 0.0 0.0 0.0 0.0 0.0 0.0 0.0 0.0 0.0 0.0 0.0 0.0 0.0 -2.088717712726629 0.08695590977226753 1.1640020643724716 1.7448720244804814 1.993672953054683 1.0782602487472568 1.479417435820447 5.841367248681873 3.105672136541537 1.741840070328556 0.6931565197523735 0.3874110611263872 -1.5268468405185336 -2.199945634494968 -2.7713563762977937 -3.4377135971358084 0.2384429819813043 0.01305847304734431 0.466003181128975 0.45776598008827907 -26.166761205908436 -0.6216790571041828 0.8755784505230333 0.8671340158589854 0.886777414037085 -0.07356752987436138 -0.1758492348094109 4.5967272757600455 -0.047861017046121335 30.12258407852653 32.04265158074909 36.41269235858317 53.77419497507125 56.25151051075173 49.7069611923217 57.78070106720697 60.42028581560392 -5.472553637892176 69.96176428791017 73.12353921814623 -5.259273406746674 0.10107756853460703 -0.47281620855021345 0.7085365823558979 0.0 0.0 0.0 0.0 0.0 0.0 0.0 0.0 0.0 0.0 0.0 0.0 0.0 0.0 0.0 0.0 0.0 0.0 0.0 0.0 0.0 0.0 0.0 0.0 0.0 0.0 0.0 0.0 0.0 0.0 0.0 0.0 0.0 0.0 0.0 0.0 0.0 0.0 0.0 0.0 0.0 0.0 0.0 0.0 0.0 0.0 0.0 0.0 0.0 0.0 0.0 0.0 0.0 0.0 0.0 0.0 0.8172386297037316 0.6055044599608157 0.9835459208460464 1.399803086465584 1.6852913052518947 1.3081233575109819 1.1811871917989145 -0.4640889424950544 -0.010608323873355101 0.3905881406507262 0.7424935172798276 0.7230574033371152 0.6768386463265934 0.3944571184505247 -0.44492013497374666 -0.6380447126341932 0.25495049564432914 0.6006516815378453 0.5998364502443173 0.6005637831226246 -19.526435964727053 0.1321406046210055 0.8279527617080404 0.8476005039259606 0.14526916613112184 0.04300422183613595 -0.06604027366147047 4.378195377399903 -0.2981634991336327 0.24937990555590916 30.09678722186002 34.60649618873076 43.33121370305015 49.45813312115836 53.03168131170076 59.94885632226223 63.65907032458654 66.94934428630631 69.79962235735115 72.5731359859883 -5.225044299727491 0.7732994815256973 -0.46903992379202464 0.5786022660628243 0.0 0.0 0.0 0.0 0.0 0.0 0.0 0.0 0.0 0.0 0.0 0.0 0.0 0.0 0.0 0.0 0.0 0.0 0.0 0.0 0.0 0.0 0.0 0.0 0.0 0.0 0.0 0.0 0.0 0.0 0.0 0.0 0.0 0.0 0.0 0.0 0.0 0.0 0.0 0.0 0.0 0.0 0.0 0.0 0.0 0.0 0.0 0.0 0.0 0.0 0.0 0.0 0.0 0.0 0.0 0.0 0.6099001075686483 0.5381309495464088 0.7781834686104573 1.141688004365414 1.4350796091994114 0.9598956456342387 2.1148768925719175 -0.8674208325191313 0.3326603245049266 0.2177255317581517 0.7432840519627982 0.728831052732806 0.7036882830257034 0.6708906959449105 0.6751404315202266 0.17867778723436084 0.33221930261108984 0.4862447021000882 -5.316718807893153 -6.151622356579736 -12.783350209132252 0.4623727577372669 0.7757272990697455 0.7772420029480823 0.7853994534411531 0.7934181044411904 0.1402891660683138 3.7004672934307745 -0.07840820185984682 0.37250448887480175 -0.8778139984713111 -3.984243745814723 3.968013150464131 48.39381023996817 53.25494214646295 57.786756565608556 61.89998635069574 65.54178400376492 64.93554032713126 60.107522230405856 -5.195486218797496 0.7731999209209484 0.09619625714270441 0.6392586460597232 0.0 0.0 0.0 0.0 0.0 0.0 0.0 0.0 0.0 0.0 0.0 0.0 0.0 0.0 0.0 0.0 0.0 0.0 0.0 0.0 0.0 0.0 0.0 0.0 0.0 0.0 0.0 0.0 0.0 0.0 0.0 0.0 0.0 0.0 0.0 0.0 0.0 0.0 0.0 0.0 0.0 0.0 0.0 0.0 0.0 0.0 0.0 0.0 0.0 0.0 0.0 0.0 0.0 0.0 0.0 0.0 0.8198962276147169 0.46911517975914196 0.6185584455984092 0.8387238229602327 1.0058513217207066 2.1862684982392113 1.2314455719237445 0.7714868620928359 0.7502004301733813 0.7297926989408892 0.735810313264387 0.7260146728427916 0.6976775329289083 0.6942275905205125 0.684225171019027 0.7162684584278517 0.7304331603083775 0.0026518459719113707 -1.1984579154940036 -1.1001065781411157 -4.6351047543316 8.553513185226503 0.7635170984721222 0.8094238193899755 0.3178883704094285 -11.868604526323281 2.3130507155648274 1.8387507363948146 1.4337080457192712 0.6444099697995114 0.41372287549580733 4.678783130098873 3.4754269846653885 2.7039444757369493 -0.2821890926202054 -1.6005688685888484 -2.2635565923694654 0.8144958568150561 5.1708912035526 64.89702541013122 -5.171820810668255 0.7731202086290985 0.09759561570256814 0.6394270818259169 0.0 0.0 0.0 0.0 0.0 0.0 0.0 0.0 0.0 0.0 0.0 0.0 0.0 0.0 0.0 0.0 0.0 0.0 0.0 0.0 0.0 0.0 0.0 0.0 0.0 0.0 0.0 0.0 0.0 0.0 0.0 0.0 0.0 0.0 0.0 0.0 0.0 0.0 0.0 0.0 0.0 0.0 0.0 0.0 0.0 0.0 0.0 0.0 0.0 0.0 0.0 0.0 0.0 0.0 0.0 0.0 0.8386064803037723 0.4120091990793997 0.49104946088350193 0.6850832173872397 0.8433780420045148 1.4279689212392914 1.1090232492298517 0.7747959732961427 0.7609915550181496 0.7615953743624777 0.7368952992034878 0.7241121143583336 0.693440973215723 0.7070518850160242 0.7194466523580756 0.7682603677638096 0.7214966408122919 5.98712268520179 6.529635646638326 5.167772495756522 3.805537692548008 10.545697579844665 0.7665981014490064 0.4806702799527425 -8.060984032877457 -11.778175195264534 0.1357822495502899 -0.6858766971425336 -1.067391277719008 -2.370499427257081 2.255607009018151 2.4412193304299254 0.08592264037221398 -15.221060365717332 -3.277073236405466 -1.2509064013798212 -1.399912987775334 -0.8373070038279959 6.556763131957129 7.442634052984758 4.014931591279802 0.7730637705775187 0.09858639228982558 0.639546338046844 0.0 0.0 0.0 0.0 0.0 0.0 0.0 0.0 0.0 0.0 0.0 0.0 0.0 0.0 0.0 0.0 0.0 0.0 0.0 0.0 0.0 0.0 0.0 0.0 0.0 0.0 0.0 0.0 0.0 0.0 0.0 0.0 0.0 0.0 0.0 0.0 0.0 0.0 0.0 0.0 0.0 0.0 0.0 0.0 0.0 0.0 0.0 0.0 0.0 0.0 0.0 0.0 0.0 0.0 0.0 0.0 0.8283404019725873 0.3873093428254164 0.4117165866999494 0.5727381400935833 0.7095578708491118 1.2004070161679785 1.003337258665453 0.7710599855294048 0.7746236408708226 0.759381400731634 0.7314541745977878 0.7144137762801399 0.6703305642504177 0.6968711483253986 0.7184934867448617 0.7795364562060648 0.7099314622384774 9.047088342583708 8.612722977855036 7.161568686995654 11.078731982725134 9.85781384723989 0.6672216425227937 -3.70116670750906 -7.131361805770617 -2.4205849870197547 -3.454445887218192 -4.173371933428502 -4.54502731912321 0.038566535974135174 6.905015952340307 2.8159567276605992 -4.734749106054299 -5.178187333194448 -5.592582479653911 -3.933585427041278 -0.3672791502406043 3.4563242761843878 1.260773838987021 3.4840615122251357 2.6831801665171024 0.7641349149510717 0.0991248219709222 0.6396111468946455 0.0 0.0 0.0 0.0 0.0 0.0 0.0 0.0 0.0 0.0 0.0 0.0 0.0 0.0 0.0 0.0 0.0 0.0 0.0 0.0 0.0 0.0 0.0 0.0 0.0 0.0 0.0 0.0 0.0 0.0 0.0 0.0 0.0 0.0 0.0 0.0 0.0 0.0 0.0 0.0 0.0 0.0 0.0 0.0 0.0 0.0 0.0 0.0 0.0 0.0 0.0 0.0 0.0 0.0 0.0 0.0 0.8223127291188504 0.39590811968669515 0.38307190493578297 0.923421803250794 0.9513423195711085 1.0015303889364302 0.9100928806988223 0.7786624829656607 0.7613622156130033 0.7493069606662534 0.7172833452405494 0.6928351293304582 0.6972451743567408 0.6991220568913467 4.684800819070746 7.440438007498889 6.96733751699445 20.879634252902207 23.061860262068564 20.738649898688607 56.40188186590346 10.118967832287808 0.9181342223456882 -5.866107653986198 -17.527601393994665 -79.62183891122412 -96.58094156243054 -40.871751670921704 -44.53581077514666 -46.67331301982089 -46.82985438970759 -46.01683841025482 -44.01792204350087 -41.07536462854336 -37.45421874671447 -33.417306527867936 -32.55887727944885 -33.79174100946551 -29.23979645745937 34.3299737018364 -9.254722030007091 5.311742406736698 0.09918672289462016 0.6396185976868016 0.0 0.0 0.0 0.0 0.0 0.0 0.0 0.0 0.0 0.0 0.0 0.0 0.0 0.0 0.0 0.0 0.0 0.0 0.0 0.0 0.0 0.0 0.0 0.0 0.0 0.0 0.0 0.0 0.0 0.0 0.0 0.0 0.0 0.0 0.0 0.0 0.0 0.0 0.0 0.0 0.0 0.0 0.0 0.0 0.0 0.0 0.0 0.0 0.0 0.0 0.0 0.0 0.0 0.0 0.0 0.0 0.8072722408868864 0.7667134754829967 0.8230732726130174 0.8377204177619745 0.8172692262942587 0.8435411484127275 0.8164600366684968 0.7564985727633304 0.7455270103976345 0.7389266245986255 0.7065705978369863 0.7009631721803335 0.7128725141148478 0.7522795551078308 4.422885674346915 4.9298423260216735 6.018008107343338 21.430306625583437 42.57176305205864 30.788913269030388 44.98168395201384 2.3904359516563316 1.353075265340045 -5.677013865730345 -71.69905327065906 -91.03443305776685 -60.65936061684238 -66.03789326363466 -69.05564516553743 -70.24811588222808 -69.48604330491123 -66.99148228985365 -63.063993204797676 -58.051019986685404 -55.74218977574915 -49.873604074528416 -43.29804284254483 -41.10864330309722 -35.24830797157431 29.161834416665663 30.916393900251983 -4.5994174337328815 0.1989152259353005 0.639568353668621 0.0 0.0 0.0 0.0 0.0 0.0 0.0 0.0 0.0 0.0 0.0 0.0 0.0 0.0 0.0 0.0 0.0 0.0 0.0 0.0 0.0 0.0 0.0 0.0 0.0 0.0 0.0 0.0 0.0 0.0 0.0 0.0 0.0 0.0 0.0 0.0 0.0 0.0 0.0 0.0 0.0 0.0 0.0 0.0 0.0 0.0 0.0 0.0 0.0 0.0 0.0 0.0 0.0 0.0 0.0 0.0 0.7808857951388282 0.7721961328569754 0.8011870450718658 0.8437822811188053 0.7618625038271204 0.7491016683987972 0.7457845878298803 0.7413030018932795 0.7322972554353037 0.7460146378824845 0.7557611928110148 0.7012578465611317 0.7150944692425145 0.7507423177462653 0.8650350056461541 5.351339241725888 5.673797549070805 18.83468421858189 43.467784269430005 24.209567733924036 29.424368333948365 -7.104908680629569 0.10233608122561916 -43.676622265479466 -76.5858246631143 -117.76372547229475 -84.09815707049226 -89.66438174165965 -92.7392471263503 -93.21095902479227 -91.27508616825173 -87.2480129671307 -81.53101351246954 -77.62533953809412 -70.16646010736096 -62.42772387021797 -53.78317695760944 -48.28358728104441 -41.170815786258906 59.54147894545048 26.93199494496874 16.387239554209827 0.21647784725104946 0.6394626772530043 0.0 0.0 0.0 0.0 0.0 0.0 0.0 0.0 0.0 0.0 0.0 0.0 0.0 0.0 0.0 0.0 0.0 0.0 0.0 0.0 0.0 0.0 0.0 0.0 0.0 0.0 0.0 0.0 0.0 0.0 0.0 0.0 0.0 0.0 0.0 0.0 0.0 0.0 0.0 0.0 0.0 0.0 0.0 0.0 0.0 0.0 0.0 0.0 0.0 0.0 0.0 0.0 0.0 0.0 0.0 0.0 0.7199740584584017 1.1142681816308446 0.923024821442679 0.7854812137824133 0.7390102419546007 0.7140084502027839 0.7247129280104221 0.2113637175255833 -1.3390120959425844 0.7305694794916089 0.73346112143603 0.7588604907729444 0.7303779797387943 0.6879767942518235 0.7029109792084709 2.006329723412517 4.348457719500079 11.678513060134009 18.371593771179388 17.014714787891414 16.830642227617314 -15.771393160858466 -28.54617840543173 -55.97523904290085 -105.26155152072084 -141.0991913758955 -104.37807085274379 -110.7002037844363 -113.82133592978111 -113.83090183651002 -215.35536837949502 -220.19014477246282 -101.10387117130095 -92.77304535474387 -83.54636062810619 -185.92973342794744 -180.026288929236 -82.84597371276266 -75.23656557074679 4.026892618314401 11.898221337859425 9.93392138564333 -0.6052004428599487 0.639306261082708 0.0 0.0 0.0 0.0 0.0 0.0 0.0 0.0 0.0 0.0 0.0 0.0 0.0 0.0 0.0 0.0 0.0 0.0 0.0 0.0 0.0 0.0 0.0 0.0 0.0 0.0 0.0 0.0 0.0 0.0 0.0 0.0 0.0 0.0 0.0 0.0 0.0 0.0 0.0 0.0 0.0 0.0 0.0 0.0 0.0 0.0 0.0 0.0 0.0 0.0 0.0 0.0 0.0 0.0 0.0 0.0 0.7095750053353816 0.8481552326335987 0.7646346215809009 0.6442878166603284 0.6756895633851313 0.6953171589807334 0.7200884094935923 -0.030304621442746926 -1.1182504109169322 0.6956352412084937 0.690834648434144 0.7160877354079042 0.7205301735162105 0.7271299707143936 0.7188722524516068 0.7514175111019364 1.176754277639262 5.21348670508833 8.155715879556993 7.433117155168048 2.9915355305420377 -24.209331141986773 -42.184224519275176 -78.86296120789285 -114.79922455685029 -138.55498416579056 -159.52407191714656 -177.6964074525825 -192.83588898287658 -204.8049396798784 -213.61603481722042 -219.41021725937014 -193.034279773155 -193.0649069704318 -191.3232157582222 -184.44211876919303 -74.86855663397512 -4.3152825698651744 -6.851334279598524 51.22300173929409 8.445509928676131 7.161513156156762 -7.546835031857128 0.5388852794462355 0.0 0.0 0.0 0.0 0.0 0.0 0.0 0.0 0.0 0.0 0.0 0.0 0.0 0.0 0.0 0.0 0.0 0.0 0.0 0.0 0.0 0.0 0.0 0.0 0.0 0.0 0.0 0.0 0.0 0.0 0.0 0.0 0.0 0.0 0.0 0.0 0.0 0.0 0.0 0.0 0.0 0.0 0.0 0.0 0.0 0.0 0.0 0.0 0.0 0.0 0.0 0.0 0.0 0.0 0.0 0.0 0.6961126825811561 -0.9528882657644306 0.576416749793927 0.9349554541763058 1.2094129449450017 2.1449628845653512 2.1184345610895337 0.4808206797776346 -1.0448950480175279 -0.7468076014069179 0.04475975182994167 0.28411129808414154 0.6282810945795327 0.7607487226860705 1.587088000142582 1.0209703719065217 0.11134413153257597 1.741470196112944 4.038970081549447 1.5588490643431014 -7.562728555370021 -13.889832519150449 -39.9113349607994 -77.29325537310842 -106.82994520464486 -136.67027287460692 -164.8229318420075 -189.28407360684113 -210.16344540426476 -223.90793931719855 -230.90790833207646 -231.05523944707568 -234.34195695575752 -224.7474497705912 -219.37842347867874 -204.6011782991121 -187.57731091176387 -20.342550988680816 -12.447094805481338 -4.335815364463852 -24.282626259291938 51.382135919512464 23.08382768062677 0.5388184496575223 0.0 0.0 0.0 0.0 0.0 0.0 0.0 0.0 0.0 0.0 0.0 0.0 0.0 0.0 0.0 0.0 0.0 0.0 0.0 0.0 0.0 0.0 0.0 0.0 0.0 0.0 0.0 0.0 0.0 0.0 0.0 0.0 0.0 0.0 0.0 0.0 0.0 0.0 0.0 0.0 0.0 0.0 0.0 0.0 0.0 0.0 0.0 0.0 0.0 0.0 0.0 0.0 0.0 0.0 0.0 0.0 -2.73200524690073 -3.6400885792282156 0.6302637883689004 0.974763454558401 2.919582723477995 2.947305024307356 2.9811409397329958 1.4162714194092494 0.24143007642313635 0.09315045103574997 0.015475959000683881 -0.2590780926778807 0.4203627304809136 0.7729731769653526 0.6439896632099313 0.06860041776479009 -0.20045997740621826 -2.670714836586943 -1.793876042460122 -2.256609839406532 -7.1006020736944455 -9.988447190756935 -27.173733116461236 -41.17524024144212 -85.16806596867369 -113.18715778524593 -140.77740197205875 -165.829288981738 -186.64987933839737 -204.35464222831797 -214.08200133133278 -217.18350610903306 -213.80893877255969 -221.01439562372457 -213.83116729943606 -201.12730385669846 -185.77283875793674 -136.80184751086466 -13.593809438886638 -30.950967342379045 -38.821650929437965 105.9092698898412 18.27245747951692 0.6205689480775565 0.0 0.0 0.0 0.0 0.0 0.0 0.0 0.0 0.0 0.0 0.0 0.0 0.0 0.0 0.0 0.0 0.0 0.0 0.0 0.0 0.0 0.0 0.0 0.0 0.0 0.0 0.0 0.0 0.0 0.0 0.0 0.0 0.0 0.0 0.0 0.0 0.0 0.0 0.0 0.0 0.0 0.0 0.0 0.0 0.0 0.0 0.0 0.0 0.0 0.0 0.0 0.0 0.0 0.0 0.0 0.0 0.7852295847241779 0.29851527938473543 0.19294023424337414 0.6039051246253311 2.5420554801050166 2.914660070002376 3.2138427771967697 1.95284944810475 0.9113593620186557 0.5302519934374926 0.23314024106793768 0.09946722266151663 0.257906745925155 0.7612909468683495 0.7222569471873967 -0.20206772126604408 -0.040077578764076825 -2.816134813222343 -2.025626276771707 -0.7628521027104399 -1.9569303876289466 -3.480731234534719 -13.407641326265058 -23.14688699899416 -63.43170186445061 -90.03827195143053 -117.57299431384693 -143.49155687376856 -166.01740630401002 -183.57547583069754 -198.51253519100464 -204.46709616699854 -203.9054010784448 -213.77589989561875 -205.04061433760626 -198.28603468767687 -184.45180458023606 -99.56623000618629 -79.54757632612716 85.89797402542952 85.5521836028969 235.11067631712257 49.19071017280818 0.6207399005066345 0.0 0.0 0.0 0.0 0.0 0.0 0.0 0.0 0.0 0.0 0.0 0.0 0.0 0.0 0.0 0.0 0.0 0.0 0.0 0.0 0.0 0.0 0.0 0.0 0.0 0.0 0.0 0.0 0.0 0.0 0.0 0.0 0.0 0.0 0.0 0.0 0.0 0.0 0.0 0.0 0.0 0.0 0.0 0.0 0.0 0.0 0.0 0.0 0.0 0.0 0.0 0.0 0.0 0.0 0.0 0.0 -8.059565258275533 -0.1647387422028413 -0.5702428317001362 -0.06880409014277833 0.5103813143162504 1.9601384128954464 2.5676771415806945 1.7416353924245416 1.207984068237073 0.7133584348069375 0.5880444423317204 0.5587107441957129 0.6393256652061288 0.860377166690294 0.47818578629169034 0.20053478823523607 -3.419186673219419 -10.374037460165885 -1.216105361214893 -2.703812419354683 2.094263707112656 2.0410536765018814 1.0498551085491619 -6.468112155736232 -19.54994613056352 -49.02977880142526 -67.54238045953902 -63.3610442738041 -75.20600276078362 -86.69571839984538 -88.48604833616078 -95.93962999593685 -101.5737277653229 -107.57065596961114 -102.71304191328133 -102.03378644186293 -99.62351118244153 -95.89060128025305 -91.19138146168092 -121.25314714715427 -102.75060679842615 -220.28929931339107 30.38589189538383 -1.7440426282286001 0.0 0.0 0.0 0.0 0.0 0.0 0.0 0.0 0.0 0.0 0.0 0.0 0.0 0.0 0.0 0.0 0.0 0.0 0.0 0.0 0.0 0.0 0.0 0.0 0.0 0.0 0.0 0.0 0.0 0.0 0.0 0.0 0.0 0.0 0.0 0.0 0.0 0.0 0.0 0.0 0.0 0.0 0.0 0.0 0.0 0.0 0.0 0.0 0.0 0.0 0.0 0.0 0.0 0.0 0.0 0.0 -9.683148260187544 -0.36549437882010744 -1.0988185257690004 -0.5836654604391602 0.007637669102830605 1.1206092720748884 1.6235828897185556 1.099364996304691 0.9499788540191901 0.7465580350410854 0.6407557762824149 0.7112645274523886 0.903850573508188 0.7253167224740816 0.5524405988986035 0.1976227948260394 -1.7020665705858082 -4.705039229456198 -1.7675640405905286 1.971284847513242 6.058640148563544 6.858220257443897 3.7414008065204327 -4.730449874132057 -18.893397753560492 -65.53705417468697 -99.4949696658246 -106.40670289941832 -152.62466219201016 -201.75070721871268 -133.11839950666277 -144.02309218558253 -166.82420126411444 -205.803270416075 -145.6398135737487 -157.31336364857847 -166.66742077714082 -196.38084947177998 -234.72702872102408 -253.06938577974006 -257.30732106627283 -348.3938431880949 33.16868379392391 -1.7424623420828986 0.0 0.0 0.0 0.0 0.0 0.0 0.0 0.0 0.0 0.0 0.0 0.0 0.0 0.0 0.0 0.0 0.0 0.0 0.0 0.0 0.0 0.0 0.0 0.0 0.0 0.0 0.0 0.0 0.0 0.0 0.0 0.0 0.0 0.0 0.0 0.0 0.0 0.0 0.0 0.0 0.0 0.0 0.0 0.0 0.0 0.0 0.0 0.0 0.0 0.0 0.0 0.0 0.0 0.0 0.0 0.0 -11.538225419705931 -6.606600677207755 -2.588463551623017 -1.3983905441690532 -0.11551100532241797 0.49622983003786897 0.6073699291315404 0.6618721075649527 0.6805321143589718 0.7070346166469325 0.7333679653301544 0.7409388531368064 0.7320413651836367 0.6897855084761754 0.7583938360690813 0.446045426980465 0.12061420250905622 -0.2288420683787605 2.3597044340244757 3.222281366906026 3.46556668892017 3.780885865698095 -1.1790899456250195 -8.496773429050585 -17.746439059828774 -33.39777564242542 -34.455978495916355 -59.40359147416706 -72.62034266567464 -88.8422606151999 -104.02404065499273 -123.45306159672774 -136.27346072621802 -146.43887315266298 -153.7563357212362 -158.2595716344302 -88.39600117615448 -94.74848697267093 -87.62002322953218 -22.723398052464407 -21.961859308952256 -22.52788903737136 32.020498530337996 -1.74222851370007 0.0 0.0 0.0 0.0 0.0 0.0 0.0 0.0 0.0 0.0 0.0 0.0 0.0 0.0 0.0 0.0 0.0 0.0 0.0 0.0 0.0 0.0 0.0 0.0 0.0 0.0 0.0 0.0 0.0 0.0 0.0 0.0 0.0 0.0 0.0 0.0 0.0 0.0 0.0 0.0 0.0 0.0 0.0 0.0 0.0 0.0 0.0 0.0 0.0 0.0 0.0 0.0 0.0 0.0 0.0 0.0 -2.3799297194727855 -0.20551679129104838 0.6652409102375711 1.1691610735055618 1.351839566849452 1.4297506634257908 1.5706484372920722 1.3882100056894318 1.2470726568209873 1.1479942024187855 1.1043055099727908 1.0558813200549366 0.9230498042717467 0.777607965618449 0.7293152807860955 0.7532415275665821 0.8316263639521833 0.8548587934943872 -0.8745560624034414 -3.7370399928732128 -4.968367529382812 -4.363572528183684 -4.802282096463999 -7.9853653155686635 -11.598800108446127 -22.377935163282398 -29.94322958222909 -34.11341386112551 -37.451465280954864 -39.78407362233388 -41.010761582338276 -41.109177638099766 -45.58999959604958 -27.82090322897107 -27.720098503478944 -10.08838125892122 -5.223426543581375 9.4896800818195 14.68217040132841 19.515228406947937 23.889921319323612 27.747937340000558 31.06768837208487 -1.7433517107752738 0.0 0.0 0.0 0.0 0.0 0.0 0.0 0.0 0.0 0.0 0.0 0.0 0.0 0.0 0.0 0.0 0.0 0.0 0.0 0.0 0.0 0.0 0.0 0.0 0.0 0.0 0.0 0.0 0.0 0.0 0.0 0.0 0.0 0.0 0.0 0.0 0.0 0.0 0.0 0.0 0.0 0.0 0.0 0.0 0.0 0.0 0.0 0.0 0.0 0.0 0.0 0.0 0.0 0.0 0.0 0.0 -0.8515985440737501 2.6583112953932964 3.470185360262496 3.927097637524628 4.138427169550485 3.5065345690607894 5.107647299194975 4.056143503093854 3.4759249371972842 2.434366744947751 2.4047845880757475 2.226732729929528 1.73240624273585 0.9822250108640431 0.7370571742279923 0.6658835678627091 0.8796195155842567 0.33125667435172984 -6.0809073249492185 -7.282330245124555 -28.10308864731046 -13.539216410513127 -10.972058953219046 -14.539830175891131 -18.675171544345762 -33.044369673933645 -38.65587405669813 -48.072123149562145 -50.85512101035288 -52.38706601326813 -44.615065639858734 -43.14041748719607 -53.83350133505068 -53.48032280337437 -30.52443076081907 -14.518726756688023 -8.864861571785347 2.650157001763033 12.263364302452601 17.62849809461727 22.443770313415598 26.65861310837522 -50.63539397026862 0.620787579897087 0.0 0.0 0.0 0.0 0.0 0.0 0.0 0.0 0.0 0.0 0.0 0.0 0.0 0.0 0.0 0.0 0.0 0.0 0.0 0.0 0.0 0.0 0.0 0.0 0.0 0.0 0.0 0.0 0.0 0.0 0.0 0.0 0.0 0.0 0.0 0.0 0.0 0.0 0.0 0.0 0.0 0.0 0.0 0.0 0.0 0.0 0.0 0.0 0.0 0.0 0.0 0.0 0.0 0.0 0.0 0.0 -4.956699923138425 6.93702575348257 8.262997095023987 8.755387755415079 8.880969079029295 7.046514925600594 9.981601093310697 9.14872578629759 7.800829682527388 6.359767132292846 4.641177362334677 3.111952368349331 2.130616724368691 1.6550539594168754 0.7804547250611306 0.71017061458731 0.5992914006348726 -3.0636366277034393 -10.50609064746225 -12.718988042534326 -14.40048085229565 -19.351623973319093 -16.600494525549358 -20.195936948987924 -20.138243620696315 -33.843560408995835 -37.476258105024456 -38.61728497007479 -40.0680857754821 -40.57325996375546 -39.85644912193759 -35.48708387932874 -30.055988217247 -23.812310235735822 -17.03062952090204 -9.988999828436022 -2.949064934375656 3.859953811168225 10.25227117379086 16.091286654558644 21.29028244152869 25.808971073948896 0.2171006502733699 0.6206327276758135 0.0 0.0 0.0 0.0 0.0 0.0 0.0 0.0 0.0 0.0 0.0 0.0 0.0 0.0 0.0 0.0 0.0 0.0 0.0 0.0 0.0 0.0 0.0 0.0 0.0 0.0 0.0 0.0 0.0 0.0 0.0 0.0 0.0 0.0 0.0 0.0 0.0 0.0 0.0 0.0 0.0 0.0 0.0 0.0 0.0 0.0 0.0 0.0 0.0 0.0 0.0 0.0 0.0 0.0 0.0 0.0 1.6940290988547844 11.382042597298804 12.178633553528478 13.721427766737161 13.86937363370845 15.10287344341645 16.371507073059746 16.68158831615598 12.319495128485192 10.181196607755176 7.254409275663773 7.445156221813322 4.374498300553447 0.023603685252113406 0.7803329607199603 0.7032732077027247 0.7503109227101089 -5.965657026815611 -18.163139003585176 -21.198582348157913 -13.462528158012853 -23.23345715400378 -24.04434268168768 -27.112924092490836 -41.40759591914068 -37.225104421168766 -46.09625571224193 -46.94407358658002 -47.743953418942105 -47.51165431098028 -46.26939067176785 -42.34553379125761 -35.90815427398843 -28.70754919859303 -21.044571916005793 -13.214902359062535 -5.489589229079229 1.8999442071706198 8.771516958469647 14.996403263440925 20.49848656438803 -52.59088567649289 0.22461774927815195 0.6204334417782253 0.0 0.0 0.0 0.0 0.0 0.0 0.0 0.0 0.0 0.0 0.0 0.0 0.0 0.0 0.0 0.0 0.0 0.0 0.0 0.0 0.0 0.0 0.0 0.0 0.0 0.0 0.0 0.0 0.0 0.0 0.0 0.0 0.0 0.0 0.0 0.0 0.0 0.0 0.0 0.0 0.0 0.0 0.0 0.0 0.0 0.0 0.0 0.0 0.0 0.0 0.0 0.0 0.0 0.0 0.0 0.0 4.974852740872965 16.01120325625238 16.993284648428236 19.02514590729124 19.258224624842224 21.707366432638548 23.750340131856575 23.289257195381605 24.184441141057874 14.41745608504976 10.114471130495366 10.301826608181985 7.45476461837481 -0.485643645352606 0.7095255476449835 0.6923820755565803 0.7041286293133506 -9.112393441507495 -25.957218243083776 -17.685558288184218 -18.00258790103596 14.727287448615844 0.8048797574982598 -34.38372219252983 -51.70685686218077 -55.26853423230493 -58.475119128275026 -50.069807207767546 -54.52787425187829 -53.5249177363812 -57.39718718450584 -57.42652866130794 -56.8175659988824 -55.662230870707184 -54.07414588933052 -52.17738654143955 -50.09589141064514 -47.9445029549494 -45.82228438480038 -43.80837750034738 -64.2342624365465 -62.521978076472905 -1.7355483416775666 0.494815040308314 0.0 0.0 0.0 0.0 0.0 0.0 0.0 0.0 0.0 0.0 0.0 0.0 0.0 0.0 0.0 0.0 0.0 0.0 